ITEM: TIMESTEP
0
ITEM: NUMBER OF ATOMS
225
ITEM: BOX BOUNDS ff ff pp
0 40
0 20
-1 1
ITEM: ATOMS x c_ps v_speed 
0.65 0 0.204406 
1.95 0 0.0213249 
3.25 0 0.0603713 
4.55 0 0.320678 
5.85 0 0.0952362 
7.15 0 0.13219 
8.45 0 0.147993 
9.75 0 0.232157 
11.05 0 0.0311355 
12.35 0 0.226196 
13.65 0 0.157825 
14.95 0 0.104708 
16.25 0 0.246976 
17.55 0 0.241709 
18.85 0 0.160704 
0.65 0 0.0143392 
1.95 0 0.271635 
3.25 0 0.0822398 
4.55 0 0.327322 
5.85 0 0.333603 
7.15 0 0.132261 
8.45 0 0.0316899 
9.75 0 0.16382 
11.05 0 0.14305 
12.35 0 0.150239 
13.65 0 0.101139 
14.95 0 0.399992 
16.25 0 0.0797949 
17.55 0 0.425333 
18.85 0 0.128984 
0.65 0 0.103961 
1.95 0 0.0701875 
3.25 0 0.162459 
4.55 0 0.114883 
5.85 0 0.298418 
7.15 0 0.13747 
8.45 0 0.0695584 
9.75 0 0.0303759 
11.05 0 0.164921 
12.35 0 0.234842 
13.65 0 0.0676388 
14.95 0 0.201706 
16.25 0 0.168455 
17.55 0 0.289125 
18.85 0 0.156026 
0.65 0 0.0872384 
1.95 0 0.105825 
3.25 0 0.220353 
4.55 0 0.173696 
5.85 0 0.0739195 
7.15 0 0.465777 
8.45 0 0.0674637 
9.75 0 0.052131 
11.05 0 0.140993 
12.35 0 0.109399 
13.65 0 0.397931 
14.95 0 0.133488 
16.25 0 0.0724664 
17.55 0 0.13807 
18.85 0 0.174893 
0.65 0 0.233725 
1.95 0 0.223046 
3.25 0 0.0364936 
4.55 0 0.197455 
5.85 0 0.122987 
7.15 0 0.178942 
8.45 0 0.263486 
9.75 0 0.169289 
11.05 0 0.207907 
12.35 0 0.116635 
13.65 0 0.18211 
14.95 0 0.098053 
16.25 0 0.228393 
17.55 0 0.15182 
18.85 0 0.243092 
0.65 0 0.093408 
1.95 0 0.166294 
3.25 0 0.0724766 
4.55 0 0.19689 
5.85 0 0.153433 
7.15 0 0.233939 
8.45 0 0.138634 
9.75 0 0.0994073 
11.05 0 0.345851 
12.35 0 0.221772 
13.65 0 0.142044 
14.95 0 0.166204 
16.25 0 0.14913 
17.55 0 0.263048 
18.85 0 0.145989 
0.65 0 0.335124 
1.95 0 0.0973564 
3.25 0 0.214449 
4.55 0 0.271803 
5.85 0 0.0183177 
7.15 0 0.0732353 
8.45 0 0.281625 
9.75 0 0.269656 
11.05 0 0.398681 
12.35 0 0.206171 
13.65 0 0.113884 
14.95 0 0.254735 
16.25 0 0.232501 
17.55 0 0.130627 
18.85 0 0.115344 
0.65 0 0.110916 
1.95 0 0.341259 
3.25 0 0.215766 
4.55 0 0.286537 
5.85 0 0.282519 
7.15 0 0.154195 
8.45 0 0.241928 
9.75 0 0.182081 
11.05 0 0.183579 
12.35 0 0.162943 
13.65 0 0.106371 
14.95 0 0.21669 
16.25 0 0.376024 
17.55 0 0.255092 
18.85 0 0.257006 
0.65 0 0.0778421 
1.95 0 0.0982368 
3.25 0 0.159485 
4.55 0 0.266461 
5.85 0 0.0658129 
7.15 0 0.237845 
8.45 0 0.0922396 
9.75 0 0.204872 
11.05 0 0.194833 
12.35 0 0.148315 
13.65 0 0.147397 
14.95 0 0.242739 
16.25 0 0.150664 
17.55 0 0.121767 
18.85 0 0.0664871 
0.65 0 0.202244 
1.95 0 0.0939484 
3.25 0 0.373845 
4.55 0 0.281186 
5.85 0 0.0988505 
7.15 0 0.0827521 
8.45 0 0.144664 
9.75 0 0.137876 
11.05 0 0.127877 
12.35 0 0.0720362 
13.65 0 0.132739 
14.95 0 0.269728 
16.25 0 0.329337 
17.55 0 0.123199 
18.85 0 0.0530977 
0.65 0 0.175712 
1.95 0 0.107978 
3.25 0 0.228514 
4.55 0 0.139153 
5.85 0 0.0276952 
7.15 0 0.250658 
8.45 0 0.176197 
9.75 0 0.073489 
11.05 0 0.0595248 
12.35 0 0.168705 
13.65 0 0.108387 
14.95 0 0.163319 
16.25 0 0.234264 
17.55 0 0.218257 
18.85 0 0.389327 
0.65 0 0.082679 
1.95 0 0.197359 
3.25 0 0.131773 
4.55 0 0.332299 
5.85 0 0.107498 
7.15 0 0.139545 
8.45 0 0.186291 
9.75 0 0.0612745 
11.05 0 0.136258 
12.35 0 0.271777 
13.65 0 0.222554 
14.95 0 0.307125 
16.25 0 0.123463 
17.55 0 0.0961855 
18.85 0 0.185311 
0.65 0 0.0889814 
1.95 0 0.298777 
3.25 0 0.0373123 
4.55 0 0.26879 
5.85 0 0.136761 
7.15 0 0.385248 
8.45 0 0.323674 
9.75 0 0.16375 
11.05 0 0.0258312 
12.35 0 0.119647 
13.65 0 0.285919 
14.95 0 0.377789 
16.25 0 0.362282 
17.55 0 0.252142 
18.85 0 0.223942 
0.65 0 0.330926 
1.95 0 0.139698 
3.25 0 0.0907332 
4.55 0 0.115981 
5.85 0 0.211521 
7.15 0 0.133925 
8.45 0 0.279245 
9.75 0 0.181878 
11.05 0 0.163879 
12.35 0 0.196771 
13.65 0 0.206425 
14.95 0 0.0669327 
16.25 0 0.0932118 
17.55 0 0.280807 
18.85 0 0.100293 
0.65 0 0.0635644 
1.95 0 0.199771 
3.25 0 0.126783 
4.55 0 0.101004 
5.85 0 0.336226 
7.15 0 0.162084 
8.45 0 0.163165 
9.75 0 0.119678 
11.05 0 0.175317 
12.35 0 0.185896 
13.65 0 0.0606489 
14.95 0 0.0392351 
16.25 0 0.136852 
17.55 0 0.133065 
18.85 0 0.163523 
ITEM: TIMESTEP
500
ITEM: NUMBER OF ATOMS
225
ITEM: BOX BOUNDS ff ff pp
0 40
0 20
-1 1
ITEM: ATOMS x c_ps v_speed 
0.657634 0 0.478483 
1.95988 0 0.405802 
3.26158 0 0.440709 
4.54337 0 0.188362 
5.85429 0 0.304156 
7.15326 0 0.368049 
8.4585 0 0.487085 
9.75315 0 0.488962 
11.0583 0 0.419886 
12.3642 0 0.596786 
13.662 0 0.532763 
14.9565 0 0.485556 
16.2511 0 0.179696 
17.5628 0 0.406681 
18.8446 0 0.335198 
0.659278 0 0.387205 
1.94618 0 0.178644 
3.26101 0 0.399484 
4.54335 0 0.147972 
5.85717 0 0.344538 
7.16342 0 0.497899 
8.45887 0 0.402123 
9.76381 0 0.526979 
11.051 0 0.295519 
12.3644 0 0.502279 
13.6547 0 0.296131 
14.9431 0 0.569178 
16.2511 0 0.366364 
17.5524 0 0.749563 
18.8524 0 0.497275 
0.656855 0 0.329562 
1.96173 0 0.416647 
3.25561 0 0.294721 
4.56416 0 0.484326 
5.8494 0 0.184888 
7.15885 0 0.441233 
8.46212 0 0.438785 
9.75968 0 0.391119 
11.0595 0 0.353587 
12.3472 0 0.291209 
13.6557 0 0.322909 
14.9472 0 0.315282 
16.2633 0 0.510968 
17.5435 0 0.18275 
18.845 0 0.335987 
0.66358 0 0.460717 
1.95558 0 0.298942 
3.26873 0 0.547592 
4.5518 0 0.274245 
5.86094 0 0.429122 
7.16351 0 0.537335 
8.4615 0 0.413023 
9.75981 0 0.412286 
11.0572 0 0.421652 
12.3556 0 0.378962 
13.6771 0 0.701014 
14.9639 0 0.487086 
16.2538 0 0.374285 
17.5591 0 0.505224 
18.8591 0 0.347688 
0.659298 0 0.461932 
1.96673 0 0.521195 
3.26108 0 0.407279 
4.55015 0 0.209017 
5.85839 0 0.3958 
7.15843 0 0.362783 
8.46805 0 0.59396 
9.765 0 0.47586 
11.0665 0 0.555394 
12.3562 0 0.37212 
13.6629 0 0.51799 
14.9543 0 0.292182 
16.2483 0 0.177154 
17.5628 0 0.514068 
18.8432 0 0.269536 
0.65641 0 0.327338 
1.95192 0 0.24055 
3.26157 0 0.416763 
4.56334 0 0.468171 
5.86369 0 0.480569 
7.16677 0 0.552678 
8.45564 0 0.307722 
9.75514 0 0.303524 
11.0696 0 0.644152 
12.3672 0 0.526015 
13.6582 0 0.403682 
14.9608 0 0.465302 
16.2662 0 0.509128 
17.5634 0 0.428231 
18.8607 0 0.379863 
0.653204 0 0.380843 
1.95631 0 0.322231 
3.25092 0 0.235867 
4.56708 0 0.55953 
5.86052 0 0.396835 
7.15917 0 0.376546 
8.47305 0 0.635298 
9.74987 0 0.248592 
11.069 0 0.640962 
12.351 0 0.234184 
13.6637 0 0.461197 
14.9715 0 0.608318 
16.2562 0 0.374394 
17.5627 0 0.452507 
18.8542 0 0.276889 
0.665145 0 0.493498 
1.96317 0 0.539335 
3.25484 0 0.336154 
4.56942 0 0.59429 
5.86577 0 0.546361 
7.1566 0 0.346138 
8.46668 0 0.542477 
9.75347 0 0.286811 
11.0554 0 0.33307 
12.3521 0 0.239801 
13.6562 0 0.323267 
14.9523 0 0.27578 
16.2445 0 0.201665 
17.5621 0 0.483157 
18.8495 0 0.228101 
0.663792 0 0.467026 
1.9568 0 0.333458 
3.26469 0 0.488252 
4.57143 0 0.610874 
5.85805 0 0.353466 
7.15322 0 0.312608 
8.46113 0 0.415815 
9.75701 0 0.375017 
11.0676 0 0.538894 
12.3596 0 0.401701 
13.6549 0 0.306575 
14.9647 0 0.515349 
16.255 0 0.30903 
17.5625 0 0.445304 
18.8604 0 0.39931 
0.658023 0 0.392451 
1.95525 0 0.29797 
3.24197 0 0.0465835 
4.54665 0 0.154881 
5.85724 0 0.348465 
7.16319 0 0.450878 
8.46015 0 0.420247 
9.75697 0 0.338758 
11.0544 0 0.281288 
12.3618 0 0.420085 
13.6649 0 0.478906 
14.949 0 0.190608 
16.2716 0 0.661291 
17.5581 0 0.41237 
18.8561 0 0.380077 
0.660752 0 0.424447 
1.96203 0 0.426073 
3.25495 0 0.372841 
4.5542 0 0.275404 
5.85844 0 0.361903 
7.15163 0 0.323356 
8.46179 0 0.473397 
9.75597 0 0.316484 
11.0617 0 0.417666 
12.3669 0 0.513452 
13.6619 0 0.460873 
14.9542 0 0.262304 
16.2473 0 0.238487 
17.5665 0 0.573951 
18.8468 0 0.655388 
0.659464 0 0.407149 
1.96282 0 0.447256 
3.26571 0 0.49551 
4.5469 0 0.297224 
5.85642 0 0.313449 
7.16528 0 0.482311 
8.46763 0 0.549107 
9.75834 0 0.386666 
11.059 0 0.355435 
12.3717 0 0.610206 
13.6652 0 0.572099 
14.9661 0 0.646884 
16.262 0 0.491533 
17.5602 0 0.432474 
18.8576 0 0.300923 
0.660872 0 0.406192 
1.97064 0 0.638639 
3.25958 0 0.378056 
4.54795 0 0.149032 
5.85977 0 0.445269 
7.16568 0 0.519751 
8.45008 0 0.206394 
9.751 0 0.259865 
11.0578 0 0.376381 
12.3563 0 0.303949 
13.6683 0 0.508817 
14.9732 0 0.595103 
16.2536 0 0.651333 
17.5532 0 0.585004 
18.8424 0 0.309441 
0.671449 0 0.609002 
1.9652 0 0.480427 
3.26 0 0.378434 
4.56332 0 0.481943 
5.85891 0 0.352762 
7.1526 0 0.298591 
8.45988 0 0.560566 
9.76475 0 0.542897 
11.0502 0 0.27086 
12.3483 0 0.284865 
13.6641 0 0.431036 
14.9542 0 0.397876 
16.2511 0 0.380571 
17.5649 0 0.60634 
18.8507 0 0.464714 
0.656461 0 0.344731 
1.96785 0 0.561424 
3.26029 0 0.378052 
4.55588 0 0.303153 
5.8695 0 0.675095 
7.16044 0 0.495538 
8.46363 0 0.436545 
9.7601 0 0.476618 
11.0555 0 0.472235 
12.3527 0 0.225253 
13.6582 0 0.377298 
14.9571 0 0.412851 
16.2525 0 0.477928 
17.5468 0 0.382724 
18.8451 0 0.299823 
ITEM: TIMESTEP
1000
ITEM: NUMBER OF ATOMS
225
ITEM: BOX BOUNDS ff ff pp
0 40
0 20
-1 1
ITEM: ATOMS x c_ps v_speed 
0.682948 0 0.815261 
1.98628 0 0.754127 
3.2893 0 0.785909 
4.55435 0 0.52086 
5.87481 0 0.66337 
7.17246 0 0.711944 
8.48193 0 0.823785 
9.77113 0 0.810892 
11.0801 0 0.769857 
12.3904 0 0.929415 
13.6848 0 0.872182 
14.9726 0 0.830026 
16.2603 0 0.555691 
17.5801 0 0.733847 
18.8425 0 0.686236 
0.686453 0 0.743421 
1.96062 0 0.52572 
3.28869 0 0.738977 
4.55485 0 0.484147 
5.88092 0 0.630916 
7.19252 0 0.830881 
8.48345 0 0.744318 
9.79234 0 0.85721 
11.0673 0 0.641397 
12.3919 0 0.833149 
13.6723 0 0.647776 
14.9485 0 0.845791 
16.2616 0 0.708979 
17.5612 0 1.0537 
18.8579 0 0.830615 
0.6822 0 0.689223 
1.99061 0 0.756039 
3.27884 0 0.637328 
4.595 0 0.818883 
5.8667 0 0.518618 
7.18447 0 0.773026 
8.49041 0 0.777369 
9.78537 0 0.734182 
11.0845 0 0.686529 
12.3603 0 0.617463 
13.6756 0 0.672589 
14.958 0 0.645856 
16.2863 0 0.839632 
17.5457 0 0.521166 
18.8445 0 0.672663 
0.695228 0 0.808216 
1.97922 0 0.649445 
3.3042 0 0.86998 
4.57187 0 0.61912 
5.88917 0 0.767712 
7.19392 0 0.782638 
8.48992 0 0.752786 
9.78645 0 0.752996 
11.0812 0 0.753459 
12.3775 0 0.717404 
13.7177 0 1.00275 
14.9915 0 0.8196 
16.2703 0 0.716649 
17.5773 0 0.837774 
18.8725 0 0.679377 
0.687319 0 0.788948 
2.0007 0 0.841032 
3.2899 0 0.748972 
4.56904 0 0.56786 
5.88469 0 0.731316 
7.1847 0 0.692176 
8.50293 0 0.912478 
9.797 0 0.803148 
11.0997 0 0.880712 
12.3798 0 0.710347 
13.6922 0 0.844913 
14.9751 0 0.645034 
16.2624 0 0.539904 
17.5872 0 0.845243 
18.8446 0 0.597656 
0.681974 0 0.689117 
1.97265 0 0.596066 
3.29101 0 0.755988 
4.59437 0 0.790597 
5.89502 0 0.810328 
7.20087 0 0.872876 
8.47965 0 0.651918 
9.77867 0 0.653843 
11.1062 0 0.949956 
12.4016 0 0.846399 
13.6842 0 0.736128 
14.9889 0 0.792858 
16.2988 0 0.840428 
17.5922 0 0.734957 
18.8826 0 0.713154 
0.675944 0 0.681783 
1.98106 0 0.669316 
3.2708 0 0.581249 
4.60157 0 0.872255 
5.88908 0 0.739745 
7.1865 0 0.71864 
8.51295 0 0.955471 
9.76878 0 0.573249 
11.1052 0 0.930597 
12.371 0 0.582281 
13.695 0 0.795625 
15.01 0 0.930466 
16.2808 0 0.690816 
17.5933 0 0.784972 
18.8771 0 0.631137 
0.698581 0 0.838601 
1.99412 0 0.831341 
3.27825 0 0.660548 
4.60602 0 0.907718 
5.89907 0 0.85523 
7.1816 0 0.681864 
8.50081 0 0.860175 
9.77565 0 0.627114 
11.0794 0 0.665048 
12.3731 0 0.596234 
13.6809 0 0.669166 
14.9733 0 0.610206 
16.2585 0 0.491327 
17.5921 0 0.793847 
18.8681 0 0.562847 
0.696015 0 0.81529 
1.98199 0 0.678639 
3.29702 0 0.817365 
4.60985 0 0.930927 
5.88437 0 0.698699 
7.17516 0 0.634489 
8.49023 0 0.753494 
9.78238 0 0.698107 
11.1025 0 0.865136 
12.3873 0 0.733398 
13.6784 0 0.649577 
14.997 0 0.830752 
16.2785 0 0.651025 
17.5929 0 0.778999 
18.8889 0 0.739996 
0.685058 0 0.728735 
1.97902 0 0.65003 
3.25372 0 0.419831 
4.56262 0 0.508737 
5.88279 0 0.691436 
7.19412 0 0.788263 
8.48833 0 0.751592 
9.78225 0 0.678025 
11.0774 0 0.632693 
12.3914 0 0.759178 
13.6973 0 0.811335 
14.9669 0 0.533575 
16.3098 0 0.9743 
17.5834 0 0.746814 
18.877 0 0.723077 
0.690135 0 0.763003 
1.99182 0 0.761766 
3.27831 0 0.690565 
4.57685 0 0.626439 
5.8849 0 0.70797 
7.17187 0 0.640017 
8.49117 0 0.799529 
9.78001 0 0.666846 
11.0908 0 0.757683 
12.4005 0 0.842209 
13.6907 0 0.795875 
14.9755 0 0.612246 
16.2614 0 0.57733 
17.5958 0 0.899169 
18.8529 0 0.950217 
0.687514 0 0.758722 
1.99311 0 0.769359 
3.29857 0 0.828473 
4.56267 0 0.588555 
5.88073 0 0.660924 
7.19748 0 0.813969 
8.50182 0 0.87751 
9.78393 0 0.728662 
11.085 0 0.692815 
12.4088 0 0.929003 
13.6957 0 0.89635 
14.9964 0 0.962988 
16.2868 0 0.825333 
17.5804 0 0.769099 
18.8705 0 0.637584 
0.689928 0 0.756716 
2.00773 0 0.95544 
3.28656 0 0.722051 
4.56429 0 0.510693 
5.88666 0 0.7771 
7.19771 0 0.794607 
8.46776 0 0.521339 
9.76918 0 0.61038 
11.0816 0 0.720914 
12.3782 0 0.651659 
13.7 0 0.813285 
15.0081 0 0.883289 
16.2686 0 0.953774 
17.5648 0 0.90482 
18.8401 0 0.635401 
0.709669 0 0.920272 
1.99701 0 0.81203 
3.28696 0 0.718869 
4.59311 0 0.81634 
5.88447 0 0.676253 
7.17218 0 0.645302 
8.48568 0 0.871645 
9.79449 0 0.871514 
11.0662 0 0.618533 
12.3617 0 0.622234 
13.6906 0 0.751377 
14.9703 0 0.738623 
16.2621 0 0.720562 
17.5854 0 0.922596 
18.8548 0 0.800498 
0.680877 0 0.705187 
2.00162 0 0.888683 
3.28703 0 0.714475 
4.57839 0 0.653381 
5.90403 0 0.988842 
7.18641 0 0.824507 
8.49201 0 0.764697 
9.78471 0 0.810544 
11.0753 0 0.7985 
12.3688 0 0.581315 
13.6781 0 0.720209 
14.9743 0 0.75413 
16.2635 0 0.809851 
17.55 0 0.71789 
18.8435 0 0.641216 
ITEM: TIMESTEP
1500
ITEM: NUMBER OF ATOMS
225
ITEM: BOX BOUNDS ff ff pp
0 40
0 20
-1 1
ITEM: ATOMS x c_ps v_speed 
0.724061 0 1.12482 
2.02762 0 1.06815 
3.33161 0 1.09704 
4.58126 0 0.851256 
5.91003 0 0.98695 
7.20609 0 1.02739 
8.51888 0 1.12924 
9.80253 0 1.11198 
11.1141 0 1.08392 
12.4273 0 1.22737 
13.7175 0 1.17626 
14.9975 0 1.13818 
16.2768 0 0.894018 
17.6014 0 1.04562 
18.8434 0 1.00744 
0.72961 0 1.06137 
1.99158 0 0.85367 
3.33146 0 1.04834 
4.58279 0 0.814744 
5.91967 0 0.93491 
7.23581 0 1.13238 
8.52225 0 1.0541 
9.8342 0 1.1562 
11.0974 0 0.959368 
12.4312 0 1.13381 
13.7014 0 0.966597 
14.9651 0 1.12631 
16.2805 0 1.02125 
17.5759 0 1.33168 
18.8662 0 1.13224 
0.72407 0 1.01221 
2.03503 0 1.06425 
3.31802 0 0.954866 
4.64093 0 1.12162 
5.9002 0 0.845147 
7.22529 0 1.07784 
8.53334 0 1.08396 
9.82557 0 1.04487 
11.1236 0 0.997861 
12.388 0 0.932882 
13.7082 0 0.98919 
14.9809 0 0.959827 
16.3182 0 1.13915 
17.5557 0 0.848167 
18.8482 0 0.986 
0.742999 0 1.1188 
2.01921 0 0.967885 
3.35482 0 1.1655 
4.60848 0 0.938601 
5.93306 0 1.07492 
7.23961 0 1.05712 
8.53364 0 1.06131 
9.82832 0 1.06178 
11.1203 0 1.0596 
12.4143 0 1.02795 
13.7706 0 1.28252 
15.0315 0 1.12163 
16.2984 0 1.02832 
17.6038 0 1.13871 
18.89 0 0.990877 
0.73207 0 1.09537 
2.05026 0 1.1375 
3.33478 0 1.0583 
4.6049 0 0.89413 
5.9272 0 1.04008 
7.22711 0 1.00213 
8.55305 0 1.20404 
9.84437 0 1.10455 
11.148 0 1.1766 
12.4192 0 1.02133 
13.7363 0 1.14352 
15.0107 0 0.964325 
16.2907 0 0.869026 
17.6222 0 1.14527 
18.8536 0 0.915215 
0.724662 0 1.01281 
2.01038 0 0.919537 
3.33662 0 1.06415 
4.64141 0 1.09129 
5.94232 0 1.11206 
7.25065 0 1.16744 
8.52027 0 0.968702 
9.81882 0 0.971922 
11.1582 0 1.23445 
12.4513 0 1.14268 
13.7263 0 1.04366 
15.0328 0 1.095 
16.3461 0 1.14078 
17.6348 0 1.0347 
18.9147 0 1.02244 
0.716168 0 0.990985 
2.02248 0 0.985518 
3.30781 0 0.903947 
4.65181 0 1.16421 
5.93396 0 1.05003 
7.23027 0 1.03011 
8.56808 0 1.2452 
9.80493 0 0.892517 
11.157 0 1.20996 
12.4081 0 0.905408 
13.7425 0 1.09977 
15.0639 0 1.22233 
16.3221 0 0.997208 
17.64 0 1.08915 
18.9167 0 0.951735 
0.748336 0 1.14637 
2.04116 0 1.11882 
3.31847 0 0.971784 
4.65817 0 1.19772 
5.94824 0 1.14697 
7.22326 0 0.994303 
8.55073 0 1.15469 
9.81475 0 0.944952 
11.1201 0 0.977842 
12.4111 0 0.919872 
13.7223 0 0.985094 
15.0115 0 0.928156 
16.2903 0 0.813629 
17.6383 0 1.09054 
18.904 0 0.885167 
0.744687 0 1.12567 
2.02381 0 0.99371 
3.34531 0 1.11845 
4.66364 0 1.222 
5.92722 0 1.01237 
7.21405 0 0.947373 
8.5356 0 1.06137 
9.82437 0 1.0059 
11.1532 0 1.16229 
12.4313 0 1.04094 
13.7187 0 0.966269 
15.0453 0 1.12641 
16.3189 0 0.967368 
17.6394 0 1.08401 
18.9337 0 1.04964 
0.729085 0 1.04259 
2.01953 0 0.968785 
3.28336 0 0.760415 
4.59608 0 0.839254 
5.92491 0 1.00503 
7.2411 0 1.0938 
8.5328 0 1.05773 
9.82409 0 0.99164 
11.1171 0 0.952557 
12.4371 0 1.06709 
13.7454 0 1.11385 
15.0018 0 0.860102 
16.3629 0 1.26018 
17.6243 0 1.05414 
18.9112 0 1.03443 
0.736154 0 1.07442 
2.03767 0 1.06851 
3.31833 0 0.997462 
4.61619 0 0.94669 
5.92766 0 1.02123 
7.20897 0 0.95106 
8.53648 0 1.1008 
9.82039 0 0.984014 
11.1356 0 1.06596 
12.4492 0 1.14161 
13.7348 0 1.10019 
15.0122 0 0.933336 
16.2906 0 0.899053 
17.6366 0 1.19394 
18.8677 0 1.23006 
0.732169 0 1.07444 
2.03921 0 1.07145 
3.34694 0 1.13011 
4.59553 0 0.898634 
5.92121 0 0.977824 
7.245 0 1.11608 
8.55099 0 1.17467 
9.82512 0 1.03942 
11.1262 0 1.00484 
12.4596 0 1.2197 
13.74 0 1.19094 
15.0396 0 1.25073 
16.3233 0 1.12743 
17.6096 0 1.07562 
18.8882 0 0.953655 
0.735222 0 1.07193 
2.0597 0 1.24389 
3.32929 0 1.03381 
4.59726 0 0.842085 
5.92903 0 1.08165 
7.24454 0 1.07885 
8.50134 0 0.844327 
9.80291 0 0.931742 
11.12 0 1.03289 
12.4142 0 0.969287 
13.744 0 1.10636 
15.0534 0 1.16533 
16.2941 0 1.23669 
17.5841 0 1.19729 
18.8425 0 0.949106 
0.76282 0 1.21025 
2.04383 0 1.11425 
3.32925 0 1.02987 
4.63778 0 1.11918 
5.9251 0 0.985909 
7.20711 0 0.963173 
8.5259 0 1.16304 
9.83779 0 1.1691 
11.0964 0 0.93866 
12.3888 0 0.939789 
13.7283 0 1.05421 
14.997 0 1.04837 
16.2821 0 1.03132 
17.6111 0 1.21271 
18.8622 0 1.10476 
0.721342 0 1.02734 
2.04981 0 1.1848 
3.32864 0 1.02469 
4.61595 0 0.971482 
5.95218 0 1.27425 
7.22645 0 1.12509 
8.53374 0 1.06898 
9.82245 0 1.1136 
11.1079 0 1.09988 
12.3971 0 0.906043 
13.7086 0 1.0318 
15.0007 0 1.06302 
16.2821 0 1.11231 
17.5589 0 1.0275 
18.8451 0 0.958163 
ITEM: TIMESTEP
2000
ITEM: NUMBER OF ATOMS
225
ITEM: BOX BOUNDS ff ff pp
0 40
0 20
-1 1
ITEM: ATOMS x c_ps v_speed 
0.779252 0 1.40289 
2.08249 0 1.35099 
3.38714 0 1.37716 
4.62259 0 1.15241 
5.95854 0 1.27804 
7.25277 0 1.31244 
8.56808 0 1.40461 
9.84607 0 1.38599 
11.1593 0 1.36562 
12.4741 0 1.49451 
13.7589 0 1.44867 
15.0304 0 1.41405 
16.2999 0 1.19615 
17.6262 0 1.32841 
18.847 0 1.29567 
0.787009 0 1.34533 
2.03749 0 1.1521 
3.38789 0 1.32881 
4.6256 0 1.11647 
5.97198 0 1.21965 
7.29194 0 1.40524 
8.57392 0 1.33443 
9.88812 0 1.42679 
11.1401 0 1.24804 
12.4812 0 1.40623 
13.741 0 1.2552 
14.9919 0 1.39004 
16.3071 0 1.30431 
17.5959 0 1.58428 
18.8769 0 1.40516 
0.780665 0 1.3009 
2.09349 0 1.3434 
3.37164 0 1.24363 
4.70051 0 1.39556 
5.94834 0 1.14362 
7.27985 0 1.35486 
8.5895 0 1.36143 
9.87887 0 1.32606 
11.1753 0 1.28181 
12.4287 0 1.22209 
13.7524 0 1.2757 
15.0148 0 1.24692 
16.3581 0 1.4108 
17.5729 0 1.1466 
18.8556 0 1.27138 
0.805145 0 1.39646 
2.07398 0 1.25627 
3.41914 0 1.43408 
4.66004 0 1.22901 
5.9911 0 1.35311 
7.29912 0 1.32214 
8.59121 0 1.34075 
9.88397 0 1.34131 
11.1731 0 1.33813 
12.4645 0 1.30996 
13.8345 0 1.53818 
15.0826 0 1.39525 
16.3369 0 1.31077 
17.6378 0 1.41101 
18.911 0 1.27523 
0.791735 0 1.37274 
2.11394 0 1.40788 
3.39419 0 1.33824 
4.65611 0 1.18957 
5.98438 0 1.32072 
7.28412 0 1.2853 
8.61696 0 1.46897 
9.90566 0 1.37874 
11.21 0 1.44482 
12.4728 0 1.30387 
13.7937 0 1.41455 
15.0598 0 1.25323 
16.3318 0 1.16694 
17.6668 0 1.41684 
18.8694 0 1.20619 
0.782617 0 1.30175 
2.0635 0 1.21251 
3.39687 0 1.34329 
4.70294 0 1.36586 
6.00406 0 1.38603 
7.31464 0 1.43549 
8.57594 0 1.2564 
9.87403 0 1.25995 
11.224 0 1.49462 
12.5151 0 1.4127 
13.7831 0 1.32359 
15.0909 0 1.36998 
16.4069 0 1.41272 
17.6899 0 1.31173 
18.9559 0 1.3041 
0.771975 0 1.27576 
2.07899 0 1.27207 
3.36034 0 1.19754 
4.71631 0 1.43123 
5.99359 0 1.33078 
7.2889 0 1.31238 
8.637 0 1.50737 
9.85667 0 1.18554 
11.2229 0 1.46887 
12.4607 0 1.19907 
13.8044 0 1.3754 
15.1317 0 1.48655 
16.3785 0 1.27914 
17.7012 0 1.3653 
18.9717 0 1.24183 
0.812646 0 1.42136 
2.10276 0 1.38619 
3.37389 0 1.25717 
4.7244 0 1.46224 
6.01177 0 1.41479 
7.27999 0 1.2789 
8.61492 0 1.42335 
9.86916 0 1.23439 
11.1759 0 1.26349 
12.4645 0 1.21289 
13.7788 0 1.27157 
15.065 0 1.21861 
16.338 0 1.11274 
17.6991 0 1.36345 
18.9555 0 1.17975 
0.808029 0 1.40288 
2.08069 0 1.27938 
3.40803 0 1.39182 
4.73136 0 1.48586 
5.98502 0 1.29648 
7.26828 0 1.2348 
8.59568 0 1.34054 
9.8814 0 1.28801 
11.218 0 1.43177 
12.4903 0 1.32105 
13.7742 0 1.25407 
15.108 0 1.39701 
16.3744 0 1.25498 
17.7005 0 1.3608 
18.9933 0 1.33014 
0.788259 0 1.32587 
2.0752 0 1.25724 
3.32918 0 1.06868 
4.64536 0 1.13943 
5.98202 0 1.2895 
7.3026 0 1.37032 
8.59203 0 1.33635 
9.88091 0 1.27684 
11.172 0 1.24233 
12.4974 0 1.34597 
13.8079 0 1.38807 
15.0521 0 1.15764 
16.4295 0 1.51981 
17.6793 0 1.33341 
18.9576 0 1.31637 
0.797005 0 1.35481 
2.09805 0 1.34683 
3.37342 0 1.27966 
4.67065 0 1.23694 
5.98517 0 1.3047 
7.26132 0 1.23754 
8.59619 0 1.37513 
9.87555 0 1.27103 
11.1947 0 1.34506 
12.5117 0 1.41308 
13.7927 0 1.37586 
15.063 0 1.22464 
16.3337 0 1.19256 
17.6878 0 1.46082 
18.8903 0 1.48798 
0.791624 0 1.35677 
2.09962 0 1.34765 
3.40935 0 1.40314 
4.64384 0 1.18794 
5.97633 0 1.26507 
7.30638 0 1.39001 
8.61373 0 1.44356 
9.88044 0 1.32092 
11.1812 0 1.28869 
12.5229 0 1.48349 
13.7968 0 1.45788 
15.0944 0 1.51169 
16.3703 0 1.4008 
17.6471 0 1.35348 
18.91 0 1.24187 
0.794986 0 1.35405 
2.12513 0 1.50551 
3.38626 0 1.31601 
4.64529 0 1.14238 
5.98543 0 1.35837 
7.30473 0 1.34691 
8.54932 0 1.14165 
9.8507 0 1.22325 
11.1715 0 1.31523 
12.4629 0 1.25728 
13.7989 0 1.3768 
15.1082 0 1.42768 
16.329 0 1.49596 
17.6104 0 1.46294 
18.8492 0 1.23669 
0.829283 0 1.47388 
2.10424 0 1.38832 
3.38541 0 1.31197 
4.69592 0 1.39328 
5.97934 0 1.26986 
7.25595 0 1.2516 
8.57918 0 1.42986 
9.89336 0 1.43845 
11.1396 0 1.22931 
12.4282 0 1.2294 
13.7762 0 1.33162 
15.0334 0 1.32898 
16.3103 0 1.31323 
17.6415 0 1.47653 
18.8724 0 1.38018 
0.776105 0 1.31504 
2.11104 0 1.45273 
3.38373 0 1.30675 
4.66711 0 1.25954 
6.01264 0 1.53304 
7.2792 0 1.3979 
8.58754 0 1.34624 
9.87208 0 1.38807 
11.1521 0 1.37431 
12.4365 0 1.20025 
13.7485 0 1.31404 
15.0353 0 1.34252 
16.3075 0 1.38658 
17.573 0 1.30915 
18.8496 0 1.2465 
ITEM: TIMESTEP
2500
ITEM: NUMBER OF ATOMS
225
ITEM: BOX BOUNDS ff ff pp
0 40
0 20
-1 1
ITEM: ATOMS x c_ps v_speed 
0.847016 0 1.6523 
2.14958 0 1.60573 
3.45461 0 1.62939 
4.67697 0 1.4247 
6.01909 0 1.53992 
7.31126 0 1.56951 
8.62835 0 1.65277 
9.90063 0 1.63408 
11.2144 0 1.61867 
12.5296 0 1.73461 
13.8084 0 1.69332 
15.0704 0 1.66178 
16.329 0 1.46638 
17.6543 0 1.58325 
18.853 0 1.55445 
0.857134 0 1.59992 
2.09693 0 1.42264 
3.45666 0 1.58278 
4.68187 0 1.39021 
6.03657 0 1.48065 
7.35969 0 1.65215 
8.63723 0 1.5881 
9.95295 0 1.67166 
11.194 0 1.50958 
12.5409 0 1.65288 
13.79 0 1.51638 
15.0278 0 1.63285 
16.3407 0 1.56063 
17.6208 0 1.81336 
18.89 0 1.6521 
0.850414 0 1.55972 
2.16466 0 1.5961 
3.4383 0 1.50541 
4.77244 0 1.64342 
6.00974 0 1.41459 
7.34685 0 1.60601 
8.65765 0 1.61252 
9.94404 0 1.58051 
11.2385 0 1.53955 
12.4812 0 1.48506 
13.807 0 1.53496 
15.0588 0 1.50775 
16.4052 0 1.65686 
17.5966 0 1.41739 
18.8666 0 1.53027 
0.880151 0 1.64568 
2.14214 0 1.5173 
3.49586 0 1.6776 
4.72515 0 1.49224 
6.06195 0 1.60492 
7.37113 0 1.56869 
8.6613 0 1.59371 
9.95209 0 1.59428 
11.2383 0 1.59073 
12.5268 0 1.56552 
13.9085 0 1.77068 
15.1439 0 1.64297 
16.3849 0 1.5665 
17.6786 0 1.65741 
18.9352 0 1.53343 
0.864735 0 1.62283 
2.19038 0 1.65341 
3.46675 0 1.59154 
4.7212 0 1.45697 
6.05483 0 1.57514 
7.35434 0 1.54251 
8.69335 0 1.70917 
9.97953 0 1.62744 
11.2843 0 1.68771 
12.5393 0 1.55995 
13.8633 0 1.66013 
15.1211 0 1.51464 
16.3846 0 1.43653 
17.7201 0 1.66262 
18.8915 0 1.47069 
0.854211 0 1.56061 
2.13055 0 1.4777 
3.47035 0 1.59599 
4.77756 0 1.6153 
6.07889 0 1.6343 
7.39146 0 1.67868 
8.64521 0 1.51709 
9.94286 0 1.52064 
11.3024 0 1.73126 
12.5916 0 1.65784 
13.8531 0 1.57752 
15.1619 0 1.61944 
16.4797 0 1.65886 
17.7563 0 1.56464 
19.0053 0 1.5596 
0.841696 0 1.53383 
2.14917 0 1.53151 
3.4269 0 1.46371 
4.7937 0 1.67406 
6.06659 0 1.58481 
7.36099 0 1.56797 
8.71839 0 1.74459 
9.92252 0 1.45202 
11.3015 0 1.70592 
12.5273 0 1.46519 
13.8795 0 1.62496 
15.2121 0 1.72567 
16.4486 0 1.53597 
17.7757 0 1.61553 
19.0404 0 1.50433 
0.889986 0 1.66818 
2.17753 0 1.63113 
3.44308 0 1.51674 
4.80336 0 1.70251 
6.08828 0 1.65873 
7.35035 0 1.5371 
8.69205 0 1.66737 
9.93743 0 1.49692 
11.2455 0 1.5229 
12.5319 0 1.47808 
13.8489 0 1.53099 
15.1324 0 1.48234 
16.4003 0 1.38554 
17.7731 0 1.61217 
19.0211 0 1.44722 
0.8845 0 1.65158 
2.15119 0 1.53807 
3.48382 0 1.63956 
4.81166 0 1.72483 
6.05636 0 1.55366 
7.33638 0 1.49637 
8.66908 0 1.59337 
9.95204 0 1.5446 
11.2957 0 1.67586 
12.5626 0 1.57519 
13.8435 0 1.51493 
15.1838 0 1.64312 
16.4437 0 1.5157 
17.7749 0 1.61158 
19.0662 0 1.58409 
0.860974 0 1.58091 
2.14459 0 1.51826 
3.38966 0 1.34764 
4.70896 0 1.41136 
6.05269 0 1.54715 
7.37725 0 1.62056 
8.66461 0 1.58909 
9.95129 0 1.53541 
11.2406 0 1.50465 
12.5708 0 1.59842 
13.8832 0 1.63639 
15.1165 0 1.4275 
16.5084 0 1.75516 
17.7472 0 1.58657 
19.0149 0 1.57149 
0.87112 0 1.60715 
2.17159 0 1.59896 
3.44216 0 1.53666 
4.73877 0 1.49973 
6.05602 0 1.5612 
7.32747 0 1.49852 
8.66894 0 1.62405 
9.9441 0 1.53074 
11.2666 0 1.59766 
12.5864 0 1.65896 
13.8632 0 1.62543 
15.1264 0 1.48849 
16.3892 0 1.45891 
17.7483 0 1.70237 
18.9201 0 1.72349 
0.864314 0 1.61002 
2.17296 0 1.59869 
3.48446 0 1.65023 
4.70614 0 1.45259 
6.04469 0 1.52515 
7.38029 0 1.63811 
8.68873 0 1.68686 
9.94855 0 1.57575 
11.2487 0 1.54608 
12.5976 0 1.72251 
13.865 0 1.69958 
15.1597 0 1.7481 
16.4268 0 1.64816 
17.692 0 1.60509 
18.9357 0 1.50344 
0.86769 0 1.60731 
2.20275 0 1.74251 
3.45611 0 1.57139 
4.70694 0 1.41422 
6.05451 0 1.60921 
7.37702 0 1.59388 
8.61033 0 1.4122 
9.91122 0 1.48725 
11.2349 0 1.57072 
12.5231 0 1.51807 
13.8638 0 1.62364 
15.1715 0 1.66818 
16.3725 0 1.73206 
17.6429 0 1.70376 
18.8599 0 1.4982 
0.90767 0 1.71269 
2.17694 0 1.63656 
3.45412 0 1.56748 
4.76626 0 1.64133 
6.04591 0 1.52814 
7.31738 0 1.51286 
8.64427 0 1.67264 
9.96005 0 1.68219 
11.1944 0 1.49264 
12.4788 0 1.49224 
13.8332 0 1.58394 
15.0785 0 1.58302 
16.3459 0 1.5686 
17.676 0 1.71584 
18.8852 0 1.62944 
0.843633 0 1.57282 
2.18408 0 1.69516 
3.45099 0 1.56248 
4.73059 0 1.52027 
6.08425 0 1.76746 
7.34346 0 1.6451 
8.65226 0 1.59787 
9.93246 0 1.63652 
11.2068 0 1.62331 
12.4858 0 1.46658 
13.7971 0 1.56953 
15.0774 0 1.59543 
16.3393 0 1.63498 
17.5919 0 1.56456 
18.8566 0 1.50795 
ITEM: TIMESTEP
3000
ITEM: NUMBER OF ATOMS
225
ITEM: BOX BOUNDS ff ff pp
0 40
0 20
-1 1
ITEM: ATOMS x c_ps v_speed 
0.92606 0 1.87661 
2.22775 0 1.8353 
3.5329 0 1.85665 
4.74316 0 1.67055 
6.09052 0 1.77575 
7.38045 0 1.80144 
8.69865 0 1.87666 
9.96514 0 1.85855 
11.2786 0 1.84647 
12.5932 0 1.95096 
13.8652 0 1.91366 
15.117 0 1.88495 
16.3636 0 1.70901 
17.6852 0 1.81312 
18.8613 0 1.78756 
0.93868 0 1.82909 
2.16861 0 1.66765 
3.53662 0 1.81268 
4.75032 0 1.6382 
6.11225 0 1.71831 
7.43795 0 1.87558 
8.71107 0 1.81763 
10.0277 0 1.89323 
11.2582 0 1.74637 
12.6094 0 1.87613 
13.8477 0 1.75272 
15.0721 0 1.85466 
16.3806 0 1.79265 
17.65 2.27383 2.02052 
18.905 0 1.87554 
0.931965 0 1.79267 
2.24733 0 1.8248 
3.51678 0 1.7425 
4.85555 0 1.8677 
6.08313 0 1.66015 
7.4251 2.59923 1.83302 
8.73663 0 1.83972 
10.0199 0 1.81076 
11.3121 0 1.77315 
12.5445 0 1.72359 
13.8711 0 1.76955 
15.1119 0 1.74423 
16.4589 0 1.87964 
17.6261 2.27383 1.66312 
18.8806 0 1.76483 
0.966718 0 1.87023 
2.2224 0 1.75352 
3.5838 0 1.8982 
4.8025 0 1.73062 
6.1444 0 1.83279 
7.45444 2.59923 1.79524 
8.74273 0 1.82264 
10.0315 0 1.8232 
11.3148 0 1.81958 
12.6002 0 1.79693 
13.9916 0 1.98168 
15.2142 0 1.86718 
16.4415 0 1.79798 
17.7256 0 1.88035 
18.9623 0 1.76747 
0.949715 0 1.84867 
2.27838 0 1.87602 
3.5512 0 1.82075 
4.79886 0 1.69895 
6.13729 0 1.80557 
7.4365 0 1.7757 
8.78103 0 1.92676 
10.0648 0 1.85276 
11.3698 0 1.9076 
12.6175 0 1.79186 
13.9438 0 1.88252 
15.1934 0 1.75118 
16.4479 0 1.68048 
17.7811 4.93931 1.88425 
18.9193 2.72394 1.71088 
0.93805 0 1.79354 
2.2102 0 1.71769 
3.55581 0 1.82469 
4.86404 0 1.84148 
6.16554 0 1.85915 
7.47992 0 1.89905 
8.72678 0 1.75315 
10.024 0 1.75655 
11.3921 0 1.94603 
12.6795 0 1.88006 
13.9351 0 1.80758 
15.2445 0 1.84547 
16.5636 0 1.8816 
17.8328 2.21536 1.79463 
19.0621 3.83389 1.78981 
0.923898 0 1.76732 
2.23169 0 1.76634 
3.50616 0 1.70478 
4.88276 0 1.8944 
6.15167 0 1.81467 
7.44525 0 1.7993 
8.81107 0 1.95924 
10.0011 0 1.69371 
11.3917 0 1.92186 
12.6066 0 1.70618 
13.9665 0 1.85086 
15.3038 0 1.94207 
16.531 0 1.76918 
17.8621 0 1.84212 
19.1216 3.83389 1.74197 
0.979046 0 1.8906 
2.26422 0 1.85424 
3.52471 0 1.75221 
4.89383 0 1.92039 
6.17654 0 1.88026 
7.43305 0 1.77104 
8.78086 0 1.88863 
10.0182 0 1.73475 
11.3275 0 1.75804 
12.6119 0 1.71806 
13.9314 0 1.76583 
15.2125 0 1.72139 
16.4756 0 1.63326 
17.8592 0 1.83808 
19.0995 0 1.68964 
0.972777 0 1.87564 
2.23402 0 1.77223 
3.57144 0 1.86391 
4.90335 0 1.94117 
6.13994 0 1.78641 
7.41703 0 1.73371 
8.75453 0 1.82225 
10.035 0 1.77739 
11.3851 0 1.89684 
12.6471 0 1.80547 
13.9251 0 1.75116 
15.2714 0 1.86644 
16.5254 0 1.75183 
17.8611 0 1.83865 
19.1512 2.94518 1.81399 
0.945847 0 1.811 
2.22639 0 1.75444 
3.46339 0 1.60006 
4.78551 0 1.65754 
6.13564 0 1.78041 
7.46378 0 1.84699 
8.74926 0 1.81807 
10.0339 0 1.76961 
11.3217 0 1.74205 
12.6562 0 1.8269 
13.9702 0 1.86117 
15.1934 0 1.67195 
16.5983 0 1.96835 
17.8266 0 1.81586 
19.0821 5.27751 1.80189 
0.957153 0 1.83482 
2.25703 0 1.82725 
3.52324 0 1.76997 
4.81926 0 1.73758 
6.13895 0 1.7933 
7.4061 0 1.73545 
8.75349 0 1.84962 
10.0247 0 1.76573 
11.3502 0 1.82625 
12.6724 0 1.88156 
13.945 0 1.85132 
15.2013 0 1.72734 
16.456 0 1.70025 
17.8174 2.50229 1.92042 
18.9565 4.83463 1.93768 
0.948889 0 1.83807 
2.25802 0 1.82638 
3.57106 0 1.87383 
4.78111 0 1.69331 
6.12504 0 1.76057 
7.46555 0 1.86271 
8.77483 0 1.907 
10.0282 0 1.80638 
11.3276 0 1.77923 
12.6824 0 1.93895 
13.9434 0 1.91836 
15.2346 0 1.96215 
16.4919 0 1.87198 
17.7436 0 1.83285 
18.9648 0 1.74045 
0.952014 0 1.83548 
2.29139 0 1.9571 
3.53763 0 1.8025 