ITEM: TIMESTEP
0
ITEM: NUMBER OF ATOMS
225
ITEM: BOX BOUNDS ff ff pp
0 40
0 20
-1 1
ITEM: ATOMS x y c_ps v_speed 
0.65 0.65 0 0.204406 
1.95 0.65 0 0.0213249 
3.25 0.65 0 0.0603713 
4.55 0.65 0 0.320678 
5.85 0.65 0 0.0952362 
7.15 0.65 0 0.13219 
8.45 0.65 0 0.147993 
9.75 0.65 0 0.232157 
11.05 0.65 0 0.0311355 
12.35 0.65 0 0.226196 
13.65 0.65 0 0.157825 
14.95 0.65 0 0.104708 
16.25 0.65 0 0.246976 
17.55 0.65 0 0.241709 
18.85 0.65 0 0.160704 
0.65 1.95 0 0.0143392 
1.95 1.95 0 0.271635 
3.25 1.95 0 0.0822398 
4.55 1.95 0 0.327322 
5.85 1.95 0 0.333603 
7.15 1.95 0 0.132261 
8.45 1.95 0 0.0316899 
9.75 1.95 0 0.16382 
11.05 1.95 0 0.14305 
12.35 1.95 0 0.150239 
13.65 1.95 0 0.101139 
14.95 1.95 0 0.399992 
16.25 1.95 0 0.0797949 
17.55 1.95 0 0.425333 
18.85 1.95 0 0.128984 
0.65 3.25 0 0.103961 
1.95 3.25 0 0.0701875 
3.25 3.25 0 0.162459 
4.55 3.25 0 0.114883 
5.85 3.25 0 0.298418 
7.15 3.25 0 0.13747 
8.45 3.25 0 0.0695584 
9.75 3.25 0 0.0303759 
11.05 3.25 0 0.164921 
12.35 3.25 0 0.234842 
13.65 3.25 0 0.0676388 
14.95 3.25 0 0.201706 
16.25 3.25 0 0.168455 
17.55 3.25 0 0.289125 
18.85 3.25 0 0.156026 
0.65 4.55 0 0.0872384 
1.95 4.55 0 0.105825 
3.25 4.55 0 0.220353 
4.55 4.55 0 0.173696 
5.85 4.55 0 0.0739195 
7.15 4.55 0 0.465777 
8.45 4.55 0 0.0674637 
9.75 4.55 0 0.052131 
11.05 4.55 0 0.140993 
12.35 4.55 0 0.109399 
13.65 4.55 0 0.397931 
14.95 4.55 0 0.133488 
16.25 4.55 0 0.0724664 
17.55 4.55 0 0.13807 
18.85 4.55 0 0.174893 
0.65 5.85 0 0.233725 
1.95 5.85 0 0.223046 
3.25 5.85 0 0.0364936 
4.55 5.85 0 0.197455 
5.85 5.85 0 0.122987 
7.15 5.85 0 0.178942 
8.45 5.85 0 0.263486 
9.75 5.85 0 0.169289 
11.05 5.85 0 0.207907 
12.35 5.85 0 0.116635 
13.65 5.85 0 0.18211 
14.95 5.85 0 0.098053 
16.25 5.85 0 0.228393 
17.55 5.85 0 0.15182 
18.85 5.85 0 0.243092 
0.65 7.15 0 0.093408 
1.95 7.15 0 0.166294 
3.25 7.15 0 0.0724766 
4.55 7.15 0 0.19689 
5.85 7.15 0 0.153433 
7.15 7.15 0 0.233939 
8.45 7.15 0 0.138634 
9.75 7.15 0 0.0994073 
11.05 7.15 0 0.345851 
12.35 7.15 0 0.221772 
13.65 7.15 0 0.142044 
14.95 7.15 0 0.166204 
16.25 7.15 0 0.14913 
17.55 7.15 0 0.263048 
18.85 7.15 0 0.145989 
0.65 8.45 0 0.335124 
1.95 8.45 0 0.0973564 
3.25 8.45 0 0.214449 
4.55 8.45 0 0.271803 
5.85 8.45 0 0.0183177 
7.15 8.45 0 0.0732353 
8.45 8.45 0 0.281625 
9.75 8.45 0 0.269656 
11.05 8.45 0 0.398681 
12.35 8.45 0 0.206171 
13.65 8.45 0 0.113884 
14.95 8.45 0 0.254735 
16.25 8.45 0 0.232501 
17.55 8.45 0 0.130627 
18.85 8.45 0 0.115344 
0.65 9.75 0 0.110916 
1.95 9.75 0 0.341259 
3.25 9.75 0 0.215766 
4.55 9.75 0 0.286537 
5.85 9.75 0 0.282519 
7.15 9.75 0 0.154195 
8.45 9.75 0 0.241928 
9.75 9.75 0 0.182081 
11.05 9.75 0 0.183579 
12.35 9.75 0 0.162943 
13.65 9.75 0 0.106371 
14.95 9.75 0 0.21669 
16.25 9.75 0 0.376024 
17.55 9.75 0 0.255092 
18.85 9.75 0 0.257006 
0.65 11.05 0 0.0778421 
1.95 11.05 0 0.0982368 
3.25 11.05 0 0.159485 
4.55 11.05 0 0.266461 
5.85 11.05 0 0.0658129 
7.15 11.05 0 0.237845 
8.45 11.05 0 0.0922396 
9.75 11.05 0 0.204872 
11.05 11.05 0 0.194833 
12.35 11.05 0 0.148315 
13.65 11.05 0 0.147397 
14.95 11.05 0 0.242739 
16.25 11.05 0 0.150664 
17.55 11.05 0 0.121767 
18.85 11.05 0 0.0664871 
0.65 12.35 0 0.202244 
1.95 12.35 0 0.0939484 
3.25 12.35 0 0.373845 
4.55 12.35 0 0.281186 
5.85 12.35 0 0.0988505 
7.15 12.35 0 0.0827521 
8.45 12.35 0 0.144664 
9.75 12.35 0 0.137876 
11.05 12.35 0 0.127877 
12.35 12.35 0 0.0720362 
13.65 12.35 0 0.132739 
14.95 12.35 0 0.269728 
16.25 12.35 0 0.329337 
17.55 12.35 0 0.123199 
18.85 12.35 0 0.0530977 
0.65 13.65 0 0.175712 
1.95 13.65 0 0.107978 
3.25 13.65 0 0.228514 
4.55 13.65 0 0.139153 
5.85 13.65 0 0.0276952 
7.15 13.65 0 0.250658 
8.45 13.65 0 0.176197 
9.75 13.65 0 0.073489 
11.05 13.65 0 0.0595248 
12.35 13.65 0 0.168705 
13.65 13.65 0 0.108387 
14.95 13.65 0 0.163319 
16.25 13.65 0 0.234264 
17.55 13.65 0 0.218257 
18.85 13.65 0 0.389327 
0.65 14.95 0 0.082679 
1.95 14.95 0 0.197359 
3.25 14.95 0 0.131773 
4.55 14.95 0 0.332299 
5.85 14.95 0 0.107498 
7.15 14.95 0 0.139545 
8.45 14.95 0 0.186291 
9.75 14.95 0 0.0612745 
11.05 14.95 0 0.136258 
12.35 14.95 0 0.271777 
13.65 14.95 0 0.222554 
14.95 14.95 0 0.307125 
16.25 14.95 0 0.123463 
17.55 14.95 0 0.0961855 
18.85 14.95 0 0.185311 
0.65 16.25 0 0.0889814 
1.95 16.25 0 0.298777 
3.25 16.25 0 0.0373123 
4.55 16.25 0 0.26879 
5.85 16.25 0 0.136761 
7.15 16.25 0 0.385248 
8.45 16.25 0 0.323674 
9.75 16.25 0 0.16375 
11.05 16.25 0 0.0258312 
12.35 16.25 0 0.119647 
13.65 16.25 0 0.285919 
14.95 16.25 0 0.377789 
16.25 16.25 0 0.362282 
17.55 16.25 0 0.252142 
18.85 16.25 0 0.223942 
0.65 17.55 0 0.330926 
1.95 17.55 0 0.139698 
3.25 17.55 0 0.0907332 
4.55 17.55 0 0.115981 
5.85 17.55 0 0.211521 
7.15 17.55 0 0.133925 
8.45 17.55 0 0.279245 
9.75 17.55 0 0.181878 
11.05 17.55 0 0.163879 
12.35 17.55 0 0.196771 
13.65 17.55 0 0.206425 
14.95 17.55 0 0.0669327 
16.25 17.55 0 0.0932118 
17.55 17.55 0 0.280807 
18.85 17.55 0 0.100293 
0.65 18.85 0 0.0635644 
1.95 18.85 0 0.199771 
3.25 18.85 0 0.126783 
4.55 18.85 0 0.101004 
5.85 18.85 0 0.336226 
7.15 18.85 0 0.162084 
8.45 18.85 0 0.163165 
9.75 18.85 0 0.119678 
11.05 18.85 0 0.175317 
12.35 18.85 0 0.185896 
13.65 18.85 0 0.0606489 
14.95 18.85 0 0.0392351 
16.25 18.85 0 0.136852 
17.55 18.85 0 0.133065 
18.85 18.85 0 0.163523 
ITEM: TIMESTEP
500
ITEM: NUMBER OF ATOMS
225
ITEM: BOX BOUNDS ff ff pp
0 40
0 20
-1 1
ITEM: ATOMS x y c_ps v_speed 
0.657634 0.663615 0 0.478483 
1.95988 0.65438 0 0.405802 
3.26158 0.655072 0 0.440709 
4.54337 0.654424 0 0.188362 
5.85429 0.653361 0 0.304156 
7.15326 0.659289 0 0.368049 
8.4585 0.662879 0 0.487085 
9.75315 0.666367 0 0.488962 
11.0583 0.657888 0 0.419886 
12.3642 0.665087 0 0.596786 
13.662 0.662565 0 0.532763 
14.9565 0.663383 0 0.485556 
16.2511 0.647841 0 0.179696 
17.5628 0.653943 0 0.406681 
18.8446 0.656509 0 0.335198 
0.659278 1.9525 0 0.387205 
1.94618 1.95378 0 0.178644 
3.26101 1.95016 0 0.399484 
4.54335 1.9532 0 0.147972 
5.85717 1.93828 0 0.344538 
7.16342 1.95847 0 0.497899 
8.45887 1.95621 0 0.402123 
9.76381 1.96058 0 0.526979 
11.051 1.95629 0 0.295519 
12.3644 1.95751 0 0.502279 
13.6547 1.95257 0 0.296131 
14.9431 1.97174 0 0.569178 
16.2511 1.95925 0 0.366364 
17.5524 1.97927 0 0.749563 
18.8524 1.96562 0 0.497275 
0.656855 3.24854 0 0.329562 
1.96173 3.25042 0 0.416647 
3.25561 3.24607 0 0.294721 
4.56416 3.25532 0 0.484326 
5.8494 3.24297 0 0.184888 
7.15885 3.2602 0 0.441233 
8.46212 3.25401 0 0.438785 
9.75968 3.25344 0 0.391119 
11.0595 3.24714 0 0.353587 
12.3472 3.25836 0 0.291209 
13.6557 3.25346 0 0.322909 
14.9472 3.25853 0 0.315282 
16.2633 3.26031 0 0.510968 
17.5435 3.25 0 0.18275 
18.845 3.25734 0 0.335987 
0.66358 4.55002 0 0.460717 
1.95558 4.54885 0 0.298942 
3.26873 4.5474 0 0.547592 
4.5518 4.5557 0 0.274245 
5.86094 4.55572 0 0.429122 
7.16351 4.5311 0 0.537335 
8.4615 4.55094 0 0.413023 
9.75981 4.55583 0 0.412286 
11.0572 4.56042 0 0.421652 
12.3556 4.55866 0 0.378962 
13.6771 4.55321 0 0.701014 
14.9639 4.5566 0 0.487086 
16.2538 4.55889 0 0.374285 
17.5591 4.56347 0 0.505224 
18.8591 4.55392 0 0.347688 
0.659298 5.86241 0 0.461932 
1.96673 5.84357 0 0.521195 
3.26108 5.85068 0 0.407279 
4.55015 5.85197 0 0.209017 
5.85839 5.85752 0 0.3958 
7.15843 5.84351 0 0.362783 
8.46805 5.86127 0 0.59396 
9.765 5.84667 0 0.47586 
11.0665 5.85949 0 0.555394 
12.3562 5.85789 0 0.37212 
13.6629 5.86141 0 0.51799 
14.9543 5.85258 0 0.292182 
16.2483 5.8504 0 0.177154 
17.5628 5.86084 0 0.514068 
18.8432 5.85444 0 0.269536 
0.65641 7.14817 0 0.327338 
1.95192 7.15243 0 0.24055 
3.26157 7.14792 0 0.416763 
4.56334 7.14224 0 0.468171 
5.86369 7.15699 0 0.480569 
7.16677 7.15955 0 0.552678 
8.45564 7.14586 0 0.307722 
9.75514 7.15286 0 0.303524 
11.0696 7.16446 0 0.644152 
12.3672 7.14447 0 0.526015 
13.6582 7.15864 0 0.403682 
14.9608 7.16027 0 0.465302 
16.2662 7.15317 0 0.509128 
17.5634 7.14318 0 0.428231 
18.8607 7.152 0 0.379863 
0.653204 8.43566 0 0.380843 
1.95631 8.44684 0 0.322231 
3.25092 8.44478 0 0.235867 
4.56708 8.46063 0 0.55953 
5.86052 8.44984 0 0.396835 
7.15917 8.44659 0 0.376546 
8.47305 8.4508 0 0.635298 
9.74987 8.44178 0 0.248592 
11.069 8.46658 0 0.640962 
12.351 8.45468 0 0.234184 
13.6637 8.4464 0 0.461197 
14.9715 8.45261 0 0.608318 
16.2562 8.46061 0 0.374394 
17.5627 8.4556 0 0.452507 
18.8542 8.4497 0 0.276889 
0.665145 9.74847 0 0.493498 
1.96317 9.76586 0 0.539335 
3.25484 9.74094 0 0.336154 
4.56942 9.74046 0 0.59429 
5.86577 9.73802 0 0.546361 
7.1566 9.75666 0 0.346138 
8.46668 9.75913 0 0.542477 
9.75347 9.75605 0 0.286811 
11.0554 9.75763 0 0.33307 
12.3521 9.74819 0 0.239801 
13.6562 9.75372 0 0.323267 
14.9523 9.75717 0 0.27578 
16.2445 9.75944 0 0.201665 
17.5621 9.76189 0 0.483157 
18.8495 9.74318 0 0.228101 
0.663792 11.0498 0 0.467026 
1.9568 11.0463 0 0.333458 
3.26469 11.0443 0 0.488252 
4.57143 11.0548 0 0.610874 
5.85805 11.0473 0 0.353466 
7.15322 11.0407 0 0.312608 
8.46113 11.0459 0 0.415815 
9.75701 11.0594 0 0.375017 
11.0676 11.0452 0 0.538894 
12.3596 11.0571 0 0.401701 
13.6549 11.0448 0 0.306575 
14.9647 11.0396 0 0.515349 
16.255 11.0446 0 0.30903 
17.5625 11.045 0 0.445304 
18.8604 11.0469 0 0.39931 
0.658023 12.359 0 0.392451 
1.95525 12.3488 0 0.29797 
3.24197 12.3514 0 0.0465835 
4.54665 12.3464 0 0.154881 
5.85724 12.3454 0 0.348465 
7.16319 12.3476 0 0.450878 
8.46015 12.3424 0 0.420247 
9.75697 12.3552 0 0.338758 
11.0544 12.3523 0 0.281288 
12.3618 12.3516 0 0.420085 
13.6649 12.3521 0 0.478906 
14.949 12.3557 0 0.190608 
16.2716 12.338 0 0.661291 
17.5581 12.3411 0 0.41237 
18.8561 12.3423 0 0.380077 
0.660752 13.6573 0 0.424447 
1.96203 13.6534 0 0.426073 
3.25495 13.6389 0 0.372841 
4.5542 13.6525 0 0.275404 
5.85844 13.6479 0 0.361903 
7.15163 13.6395 0 0.323356 
8.46179 13.6402 0 0.473397 
9.75597 13.6479 0 0.316484 
11.0617 13.6494 0 0.417666 
12.3669 13.65 0 0.513452 
13.6619 13.6425 0 0.460873 
14.9542 13.6524 0 0.262304 
16.2473 13.6443 0 0.238487 
17.5665 13.639 0 0.573951 
18.8468 13.6247 0 0.655388 
0.659464 14.9444 0 0.407149 
1.96282 14.957 0 0.447256 
3.26571 14.9487 0 0.49551 
4.5469 14.9383 0 0.297224 
5.85642 14.9519 0 0.313449 
7.16528 14.9505 0 0.482311 
8.46763 14.9443 0 0.549107 
9.75834 14.9441 0 0.386666 
11.059 14.953 0 0.355435 
12.3717 14.9466 0 0.610206 
13.6652 14.9372 0 0.572099 
14.9661 14.9324 0 0.646884 
16.262 14.9401 0 0.491533 
17.5602 14.9424 0 0.432474 
18.8576 14.9483 0 0.300923 
0.660872 16.2518 0 0.406192 
1.97064 16.2389 0 0.638639 
3.25958 16.2491 0 0.378056 
4.54795 16.2531 0 0.149032 
5.85977 16.2404 0 0.445269 
7.16568 16.2637 0 0.519751 
8.45008 16.2589 0 0.206394 
9.751 16.2455 0 0.259865 
11.0578 16.2445 0 0.376381 
12.3563 16.2503 0 0.303949 
13.6683 16.2528 0 0.508817 
14.9732 16.2512 0 0.595103 
16.2536 16.2253 0 0.651333 
17.5532 16.2295 0 0.585004 
18.8424 16.2446 0 0.309441 
0.671449 17.5575 0 0.609002 
1.9652 17.5497 0 0.480427 
3.26 17.5509 0 0.378434 
4.56332 17.543 0 0.481943 
5.85891 17.5563 0 0.352762 
7.1526 17.5442 0 0.298591 
8.45988 17.5323 0 0.560566 
9.76475 17.5393 0 0.542897 
11.0502 17.5446 0 0.27086 
12.3483 17.5429 0 0.284865 
13.6641 17.5501 0 0.431036 
14.9542 17.5401 0 0.397876 
16.2511 17.5399 0 0.380571 
17.5649 17.5338 0 0.60634 
18.8507 17.5359 0 0.464714 
0.656461 18.8463 0 0.344731 
1.96785 18.843 0 0.561424 
3.26029 18.852 0 0.378052 
4.55588 18.8497 0 0.303153 
5.8695 18.8338 0 0.675095 
7.16044 18.8378 0 0.495538 
8.46363 18.8503 0 0.436545 
9.7601 18.8391 0 0.476618 
11.0555 18.8357 0 0.472235 
12.3527 18.851 0 0.225253 
13.6582 18.8448 0 0.377298 
14.9571 18.8411 0 0.412851 
16.2525 18.8351 0 0.477928 
17.5468 18.8397 0 0.382724 
18.8451 18.8448 0 0.299823 
ITEM: TIMESTEP
1000
ITEM: NUMBER OF ATOMS
225
ITEM: BOX BOUNDS ff ff pp
0 40
0 20
-1 1
ITEM: ATOMS x y c_ps v_speed 
0.682948 0.6838 0 0.815261 
1.98628 0.666738 0 0.754127 
3.2893 0.668536 0 0.785909 
4.55435 0.667844 0 0.52086 
5.87481 0.666448 0 0.66337 
7.17246 0.678364 0 0.711944 
8.48193 0.685948 0 0.823785 
9.77113 0.69343 0 0.810892 
11.0801 0.678341 0 0.769857 
12.3904 0.693071 0 0.929415 
13.6848 0.689458 0 0.872182 
14.9726 0.692214 0 0.830026 
16.2603 0.663928 0 0.555691 
17.5801 0.676487 0 0.733847 
18.8425 0.682005 0 0.686236 
0.686453 1.96086 0 0.743421 
1.96062 1.96369 0 0.52572 
3.28869 1.95724 0 0.738977 
4.55485 1.96352 0 0.484147 
5.88092 1.93568 0 0.630916 
7.19252 1.97477 0 0.830881 
8.48345 1.97122 0 0.744318 
9.79234 1.98039 0 0.85721 
11.0673 1.97321 0 0.641397 
12.3919 1.97668 0 0.833149 
13.6723 1.96856 0 0.647776 
14.9485 2.00647 0 0.845791 
16.2616 1.98413 0 0.708979 
17.5612 2.02358 0 1.0537 
18.8579 1.9985 0 0.830615 
0.6822 3.2522 0 0.689223 
1.99061 3.25612 0 0.756039 
3.27884 3.24821 0 0.637328 
4.595 3.26625 0 0.818883 
5.8667 3.24324 0 0.518618 
7.18447 3.27662 0 0.773026 
8.49041 3.26551 0 0.777369 
9.78537 3.26522 0 0.734182 
11.0845 3.25419 0 0.686529 
12.3603 3.27668 0 0.617463 
13.6756 3.26872 0 0.672589 
14.958 3.27995 0 0.645856 
16.2863 3.28514 0 0.839632 
17.5457 3.26724 0 0.521166 
18.8445 3.28257 0 0.672663 
0.695228 4.55384 0 0.808216 
1.97922 4.55188 0 0.649445 
3.3042 4.54943 0 0.86998 
4.57187 4.56557 0 0.61912 
5.88917 4.56601 0 0.767712 
7.19392 4.51962 0 0.782638 
8.48992 4.55796 0 0.752786 
9.78645 4.56795 0 0.752996 
11.0812 4.57751 0 0.753459 
12.3775 4.57522 0 0.717404 
13.7177 4.56619 0 1.00275 
14.9915 4.57431 0 0.8196 
16.2703 4.58074 0 0.716649 
17.5773 4.59183 0 0.837774 
18.8725 4.57575 0 0.679377 
0.687319 5.87621 0 0.788948 
2.0007 5.84053 0 0.841032 
3.2899 5.85426 0 0.748972 
4.56904 5.85698 0 0.56786 
5.88469 5.86783 0 0.731316 
7.1847 5.84149 0 0.692176 
8.50293 5.87571 0 0.912478 
9.797 5.84843 0 0.803148 
11.0997 5.87348 0 0.880712 
12.3798 5.87124 0 0.710347 
13.6922 5.87905 0 0.844913 
14.9751 5.86377 0 0.645034 
16.2624 5.86175 0 0.539904 
17.5872 5.88463 0 0.845243 
18.8446 5.87589 0 0.597656 
0.681974 7.14785 0 0.689117 
1.97265 7.15605 0 0.596066 
3.29101 7.14757 0 0.755988 
4.59437 7.13688 0 0.790597 
5.89502 7.16511 0 0.810328 
7.20087 7.17016 0 0.872876 
8.47965 7.14433 0 0.651918 
9.77867 7.15793 0 0.653843 
11.1062 7.18036 0 0.949956 
12.4016 7.14279 0 0.846399 
13.6842 7.1704 0 0.736128 
14.9889 7.17446 0 0.792858 
16.2988 7.16249 0 0.840428 
17.5922 7.14627 0 0.734957 
18.8826 7.16835 0 0.713154 
0.675944 8.42274 0 0.681783 
1.98106 8.44404 0 0.669316 
3.2708 8.44012 0 0.581249 
4.60157 8.4703 0 0.872255 
5.88908 8.44976 0 0.739745 
7.1865 8.44359 0 0.71864 
8.51295 8.45161 0 0.955471 
9.76878 8.43445 0 0.573249 
11.1052 8.48165 0 0.930597 
12.371 8.45903 0 0.582281 
13.695 8.4433 0 0.795625 
15.01 8.45516 0 0.930466 
16.2808 8.47041 0 0.690816 
17.5933 8.46101 0 0.784972 
18.8771 8.45025 0 0.631137 
0.698581 9.74709 0 0.838601 
1.99412 9.7802 0 0.831341 
3.27825 9.73275 0 0.660548 
4.60602 9.73183 0 0.907718 
5.89907 9.72718 0 0.85523 
7.1816 9.76269 0 0.681864 
8.50081 9.7674 0 0.860175 
9.77565 9.76152 0 0.627114 
11.0794 9.76453 0 0.665048 
12.3731 9.74655 0 0.596234 
13.6809 9.75709 0 0.669166 
14.9733 9.76365 0 0.610206 
16.2585 9.76799 0 0.491327 
17.5921 9.77265 0 0.793847 
18.8681 9.73701 0 0.562847 
0.696015 11.0496 0 0.81529 
1.98199 11.043 0 0.678639 
3.29702 11.0392 0 0.817365 
4.60985 11.0591 0 0.930927 
5.88437 11.0449 0 0.698699 
7.17516 11.0323 0 0.634489 
8.49023 11.0421 0 0.753494 
9.78238 11.0679 0 0.698107 
11.1025 11.0408 0 0.865136 
12.3873 11.0634 0 0.733398 
13.6784 11.0402 0 0.649577 
14.997 11.0302 0 0.830752 
16.2785 11.0397 0 0.651025 
17.5929 11.0404 0 0.778999 
18.8889 11.0441 0 0.739996 
0.685058 12.3662 0 0.728735 
1.97902 12.3469 0 0.65003 
3.25372 12.3516 0 0.419831 
4.56262 12.342 0 0.508737 
5.88279 12.3401 0 0.691436 
7.19412 12.3442 0 0.788263 
8.48833 12.3342 0 0.751592 
9.78225 12.3583 0 0.678025 
11.0774 12.3525 0 0.632693 
12.3914 12.3509 0 0.759178 
13.6973 12.3515 0 0.811335 
14.9669 12.3577 0 0.533575 
16.3098 12.323 0 0.9743 
17.5834 12.3268 0 0.746814 
18.877 12.3241 0 0.723077 
0.690135 13.6617 0 0.763003 
1.99182 13.6542 0 0.761766 
3.27831 13.6265 0 0.690565 
4.57685 13.6522 0 0.626439 
5.8849 13.6431 0 0.70797 
7.17187 13.6268 0 0.640017 
8.49117 13.6278 0 0.799529 
9.78001 13.6421 0 0.666846 
11.0908 13.6444 0 0.757683 
12.4005 13.6449 0 0.842209 
13.6907 13.6297 0 0.795875 
14.9755 13.6471 0 0.612246 
16.2614 13.6296 0 0.57733 
17.5958 13.6164 0 0.899169 
18.8529 13.585 0 0.950217 
0.687514 14.936 0 0.758722 
1.99311 14.9597 0 0.769359 
3.29857 14.9437 0 0.828473 
4.56267 14.9235 0 0.588555 
5.88073 14.949 0 0.660924 
7.19748 14.946 0 0.813969 
8.50182 14.9337 0 0.87751 
9.78393 14.9327 0 0.728662 
11.085 14.9489 0 0.692815 
12.4088 14.9357 0 0.929003 
13.6957 14.9165 0 0.89635 
14.9964 14.9057 0 0.962988 
16.2868 14.9183 0 0.825333 
17.5804 14.92 0 0.769099 
18.8705 14.9288 0 0.637584 
0.689928 16.2489 0 0.756716 
2.00773 16.224 0 0.95544 
3.28656 16.2431 0 0.722051 
4.56429 16.2504 0 0.510693 
5.88666 16.2257 0 0.7771 
7.19771 16.2695 0 0.794607 
8.46776 16.2597 0 0.521339 
9.76918 16.2334 0 0.61038 
11.0816 16.2307 0 0.720914 
12.3782 16.2405 0 0.651659 
13.7 16.244 0 0.813285 
15.0081 16.2392 0 0.883289 
16.2686 16.1881 0 0.953774 
17.5648 16.194 0 0.90482 
18.8401 16.2212 0 0.635401 
0.709669 17.5586 0 0.920272 
1.99701 17.5434 0 0.81203 
3.28696 17.5453 0 0.718869 
4.59311 17.5298 0 0.81634 
5.88447 17.5544 0 0.676253 
7.17218 17.5309 0 0.645302 
8.48568 17.5074 0 0.871645 
9.79449 17.5199 0 0.871514 
11.0662 17.529 0 0.618533 
12.3617 17.5246 0 0.622234 
13.6906 17.5371 0 0.751377 
14.9703 17.5165 0 0.738623 
16.2621 17.5145 0 0.720562 
17.5854 17.5015 0 0.922596 
18.8548 17.5044 0 0.800498 
0.680877 18.8363 0 0.705187 
2.00162 18.8294 0 0.888683 
3.28703 18.8461 0 0.714475 
4.57839 18.8413 0 0.653381 
5.90403 18.8104 0 0.988842 
7.18641 18.8172 0 0.824507 
8.49201 18.8404 0 0.764697 
9.78471 18.8182 0 0.810544 
11.0753 18.8108 0 0.7985 
12.3688 18.8387 0 0.581315 
13.6781 18.8258 0 0.720209 
14.9743 18.8174 0 0.75413 
16.2635 18.8047 0 0.809851 
17.55 18.8123 0 0.71789 
18.8435 18.8213 0 0.641216 
ITEM: TIMESTEP
1500
ITEM: NUMBER OF ATOMS
225
ITEM: BOX BOUNDS ff ff pp
0 40
0 20
-1 1
ITEM: ATOMS x y c_ps v_speed 
0.724061 0.709763 0 1.12482 
2.02762 0.686201 0 1.06815 
3.33161 0.68947 0 1.09704 
4.58126 0.689276 0 0.851256 
5.91003 0.688212 0 0.98695 
7.20609 0.706132 0 1.02739 
8.51888 0.718052 0 1.12924 
9.80253 0.729962 0 1.11198 
11.1141 0.709995 0 1.08392 
12.4273 0.732522 0 1.22737 
13.7175 0.729114 0 1.17626 
14.9975 0.734809 0 1.13818 
16.2768 0.696372 0 0.894018 
17.6014 0.71568 0 1.04562 
18.8434 0.724473 0 1.00744 
0.72961 1.97453 0 1.06137 
1.99158 1.97914 0 0.85367 
3.33146 1.97058 0 1.04834 
4.58279 1.98027 0 0.814744 
5.91967 1.94135 0 0.93491 
7.23581 1.99816 0 1.13238 
8.52225 1.99419 0 1.0541 
9.8342 2.00857 0 1.1562 
11.0974 1.99976 0 0.959368 
12.4312 2.00642 0 1.13381 
13.7014 1.9967 0 0.966597 
14.9651 2.05291 0 1.12631 
16.2805 2.02316 0 1.02125 
17.5759 2.08148 0 1.33168 
18.8662 2.047 0 1.13224 
0.72407 3.2605 0 1.01221 
2.03503 3.26659 0 1.06425 
3.31802 3.25585 0 0.954866 
4.64093 3.28226 0 1.12162 
5.9002 3.25011 0 0.845147 
7.22529 3.29866 0 1.07784 
8.53334 3.2838 0 1.08396 
9.82557 3.28457 0 1.04487 
11.1236 3.27023 0 0.997861 
12.388 3.304 0 0.932882 
13.7082 3.29466 0 0.98919 
14.9809 3.31303 0 0.959827 
16.3182 3.32311 0 1.13915 
17.5557 3.30008 0 0.848167 
18.8482 3.32398 0 0.986 
0.742999 4.56111 0 1.1188 
2.01921 4.55869 0 0.967885 
3.35482 4.55565 0 1.1655 
4.60848 4.5792 0 0.938601 
5.93306 4.58044 0 1.07492 
7.23961 4.51488 0 1.05712 
8.53364 4.57048 0 1.06131 
9.82832 4.58575 0 1.06178 
11.1203 4.60065 0 1.0596 
12.4143 4.59892 0 1.02795 
13.7706 4.58803 0 1.28252 
15.0315 4.60207 0 1.12163 
16.2984 4.61429 0 1.02832 
17.6038 4.63367 0 1.13871 
18.89 4.6138 0 0.990877 
0.73207 5.89126 0 1.09537 
2.05026 5.84055 0 1.1375 
3.33478 5.86048 0 1.0583 
4.6049 5.86472 0 0.89413 
5.9272 5.88064 0 1.04008 
7.22711 5.84352 0 1.00213 
8.55305 5.89302 0 1.20404 
9.84437 5.85481 0 1.10455 
11.148 5.89152 0 1.1766 
12.4192 5.88953 0 1.02133 
13.7363 5.90232 0 1.14352 
15.0107 5.88273 0 0.964325 
16.2907 5.88299 0 0.869026 
17.6222 5.92015 0 1.14527 
18.8536 5.91272 0 0.915215 
0.724662 7.14888 0 1.01281 
2.01038 7.16074 0 0.919537 
3.33662 7.14878 0 1.06415 
4.64141 7.13372 0 1.09129 
5.94232 7.17426 0 1.11206 
7.25065 7.18173 0 1.16744 
8.52027 7.14516 0 0.968702 
9.81882 7.165 0 0.971922 
11.1582 7.19754 0 1.23445 
12.4513 7.14461 0 1.14268 
13.7263 7.18496 0 1.04366 
15.0328 7.19216 0 1.095 
16.3461 7.17739 0 1.14078 
17.6348 7.1584 0 1.0347 
18.9147 7.19773 0 1.02244 
0.716168 8.41113 0 0.990985 
2.02248 8.44157 0 0.985518 
3.30781 8.43598 0 0.903947 
4.65181 8.47908 0 1.16421 
5.93396 8.44975 0 1.05003 
7.23027 8.44095 0 1.03011 
8.56808 8.45242 0 1.2452 
9.80493 8.42794 0 0.892517 
11.157 8.49533 0 1.20996 
12.4081 8.46307 0 0.905408 
13.7425 8.44067 0 1.09977 
15.0639 8.45763 0 1.22233 
16.3221 8.47943 0 0.997208 
17.64 8.46621 0 1.08915 
18.9167 8.4516 0 0.951735 
0.748336 9.74584 0 1.14637 
2.04116 9.79319 0 1.11882 
3.31847 9.72534 0 0.971784 
4.65817 9.72402 0 1.19772 
5.94824 9.71737 0 1.14697 
7.22326 9.76814 0 0.994303 
8.55073 9.77488 0 1.15469 
9.81475 9.76647 0 0.944952 
11.1201 9.77078 0 0.977842 
12.4111 9.74507 0 0.919872 
13.7223 9.76013 0 0.985094 
15.0115 9.76952 0 0.928156 
16.2903 9.77572 0 0.813629 
17.6383 9.78239 0 1.09054 
18.904 9.73143 0 0.885167 
0.744687 11.0494 0 1.12567 
2.02381 11.04 0 0.99371 
3.34531 11.0345 0 1.11845 
4.66364 11.063 0 1.222 
5.92722 11.0427 0 1.01237 
7.21405 11.0247 0 0.947373 
8.5356 11.0387 0 1.06137 
9.82437 11.0755 0 1.0059 
11.1532 11.0368 0 1.16229 
12.4313 11.0692 0 1.04094 
13.7187 11.0359 0 0.966269 
15.0453 11.0216 0 1.12641 
16.3189 11.0353 0 0.967368 
17.6394 11.0363 0 1.08401 
18.9337 11.0416 0 1.04964 
0.729085 12.372 0 1.04259 
2.01953 12.3442 0 0.968785 
3.28336 12.3509 0 0.760415 
4.59608 12.3371 0 0.839254 
5.92491 12.3341 0 1.00503 
7.2411 12.3399 0 1.0938 
8.5328 12.3254 0 1.05773 
9.82409 12.3595 0 0.99164 
11.1171 12.3509 0 0.952557 
12.4371 12.3481 0 1.06709 
13.7454 12.3483 0 1.11385 
15.0018 12.3563 0 0.860102 
16.3629 12.3053 0 1.26018 
17.6243 12.3077 0 1.05414 
18.9112 12.2964 0 1.03443 
0.736154 13.6636 0 1.07442 
2.03767 13.6527 0 1.06851 
3.31833 13.6129 0 0.997462 
4.61619 13.6492 0 0.94669 
5.92766 13.6359 0 1.02123 
7.20897 13.6123 0 0.95106 
8.53648 13.6131 0 1.1008 
9.82039 13.6329 0 0.984014 
11.1356 13.6354 0 1.06596 
12.4492 13.635 0 1.14161 
13.7348 13.612 0 1.10019 
15.0122 13.6348 0 0.933336 
16.2906 13.607 0 0.899053 
17.6366 13.5834 0 1.19394 
18.8677 13.5325 0 1.23006 
0.732169 14.9251 0 1.07444 
2.03921 14.9586 0 1.07145 
3.34694 14.9354 0 1.13011 
4.59553 14.9061 0 0.898634 
5.92121 14.942 0 0.977824 
7.245 14.9369 0 1.11608 
8.55099 14.9186 0 1.17467 
9.82512 14.9164 0 1.03942 
11.1262 14.9382 0 1.00484 
12.4596 14.918 0 1.2197 
13.74 14.8887 0 1.19094 
15.0396 14.8709 0 1.25073 
16.3233 14.8857 0 1.12743 
17.6096 14.8842 0 1.07562 
18.8882 14.893 0 0.953655 
0.735222 16.2417 0 1.07193 
2.0597 16.2057 0 1.24389 
3.32929 16.2325 0 1.03381 
4.59726 16.2423 0 0.842085 
5.92903 16.2064 0 1.08165 
7.24454 16.2682 0 1.07885 
8.50134 16.2532 0 0.844327 
9.80291 16.2144 0 0.931742 
11.12 16.2092 0 1.03289 
12.4142 16.2215 0 0.969287 
13.744 16.2245 0 1.10636 
15.0534 16.2153 0 1.16533 
16.2941 16.1395 0 1.23669 
17.5841 16.145 0 1.19729 
18.8425 16.1816 0 0.949106 
0.76282 17.5539 0 1.21025 
2.04383 17.5316 0 1.11425 
3.32925 17.5337 0 1.02987 
4.63778 17.5109 0 1.11918 
5.9251 17.5453 0 0.985909 
7.20711 17.5107 0 0.963173 
8.5259 17.4762 0 1.16304 
9.83779 17.4927 0 1.1691 
11.0964 17.5043 0 0.93866 
12.3888 17.4963 0 0.939789 
13.7283 17.5122 0 1.05421 
14.997 17.4805 0 1.04837 
16.2821 17.4755 0 1.03132 
17.6111 17.4546 0 1.21271 
18.8622 17.4572 0 1.10476 
0.721342 18.8204 0 1.02734 
2.04981 18.81 0 1.1848 
3.32864 18.8331 0 1.02469 
4.61595 18.8254 0 0.971482 
5.95218 18.7805 0 1.27425 
7.22645 18.7892 0 1.12509 
8.53374 18.8211 0 1.06898 
9.82245 18.7882 0 1.1136 
11.1079 18.7761 0 1.09988 
12.3971 18.8145 0 0.906043 
13.7086 18.7941 0 1.0318 
15.0007 18.7802 0 1.06302 
16.2821 18.7603 0 1.11231 
17.5589 18.7695 0 1.0275 
18.8451 18.7812 0 0.958163 
ITEM: TIMESTEP
2000
ITEM: NUMBER OF ATOMS
225
ITEM: BOX BOUNDS ff ff pp
0 40
0 20
-1 1
ITEM: ATOMS x y c_ps v_speed 
0.779252 0.740794 0 1.40289 
2.08249 0.711944 0 1.35099 
3.38714 0.71701 0 1.37716 
4.62259 0.717792 0 1.15241 
5.95854 0.717664 0 1.27804 
7.25277 0.741584 0 1.31244 
8.56808 0.758148 0 1.40461 
9.84607 0.774871 0 1.38599 
11.1593 0.751589 0 1.36562 
12.4741 0.782155 0 1.49451 
13.7589 0.780119 0 1.44867 
15.0304 0.789651 0 1.41405 
16.2999 0.743388 0 1.19615 
17.6262 0.769713 0 1.32841 
18.847 0.782068 0 1.29567 
0.787009 1.993 0 1.34533 
2.03749 1.9996 0 1.1521 
3.38789 1.9896 0 1.32881 
4.6256 2.00284 0 1.11647 
5.97198 1.95453 0 1.21965 
7.29194 2.02797 0 1.40524 
8.57392 2.02436 0 1.33443 
9.88812 2.04431 0 1.42679 
11.1401 2.035 0 1.24804 
12.4812 2.04573 0 1.40623 
13.741 2.03583 0 1.2552 
14.9919 2.10993 0 1.39004 
16.3071 2.07497 0 1.30431 
17.5959 2.15168 0 1.58428 
18.8769 2.10963 0 1.40516 
0.780665 3.27301 0 1.3009 
2.09349 3.2814 0 1.3434 
3.37164 3.26847 0 1.24363 
4.70051 3.30288 0 1.39556 
5.94834 3.26298 0 1.14362 
7.27985 3.32578 0 1.35486 
8.5895 3.30824 0 1.36143 
9.87887 3.31076 0 1.32606 
11.1753 3.2944 0 1.28181 
12.4287 3.33945 0 1.22209 
13.7524 3.33026 0 1.2757 
15.0148 3.35664 0 1.24692 
16.3581 3.37297 0 1.4108 
17.5729 3.34701 0 1.1466 
18.8556 3.38003 0 1.27138 
0.805145 4.57151 0 1.39646 
2.07398 4.56894 0 1.25627 
3.41914 4.56566 0 1.43408 
4.66004 4.59623 0 1.22901 
5.9911 4.5986 0 1.35311 
7.29912 4.51627 0 1.32214 
8.59121 4.58798 0 1.34075 
9.88397 4.6087 0 1.34131 
11.1731 4.62923 0 1.33813 
12.4645 4.62906 0 1.30996 
13.8345 4.61792 0 1.53818 
15.0826 4.63894 0 1.39525 
16.3369 4.65843 0 1.31077 
17.6378 4.68771 0 1.41101 
18.911 4.66653 0 1.27523 
0.791735 5.90743 0 1.37274 
2.11394 5.84337 0 1.40788 
3.39419 5.86909 0 1.33824 
4.65611 5.87493 0 1.18957 
5.98438 5.89572 0 1.32072 
7.28412 5.84925 0 1.2853 
8.61696 5.9129 0 1.46897 
9.90566 5.86538 0 1.37874 
11.21 5.91322 0 1.44482 
12.4728 5.91227 0 1.30387 
13.7937 5.93067 0 1.41455 
15.0598 5.90873 0 1.25323 
16.3318 5.91318 0 1.16694 
17.6668 5.96629 0 1.41684 
18.8694 5.96345 0 1.20619 
0.782617 7.15115 0 1.30175 
2.0635 7.16639 0 1.21251 
3.39687 7.15142 0 1.34329 
4.70294 7.13254 0 1.36586 
6.00406 7.18432 0 1.38603 
7.31464 7.19416 0 1.43549 
8.57594 7.14815 0 1.2564 
9.87403 7.17386 0 1.25995 
11.224 7.21586 0 1.49462 
12.5151 7.14963 0 1.4127 
13.7831 7.20204 0 1.32359 
15.0909 7.21303 0 1.36998 
16.4069 7.19736 0 1.41272 
17.6899 7.17876 0 1.31173 
18.9559 7.23893 0 1.3041 
0.771975 8.40072 0 1.27576 
2.07899 8.43939 0 1.27207 
3.36034 8.4323 0 1.19754 
4.71631 8.48706 0 1.43123 
5.99359 8.44982 0 1.33078 
7.2889 8.43865 0 1.31238 
8.637 8.45323 0 1.50737 
9.85667 8.42218 0 1.18554 
11.2229 8.50772 0 1.46887 
12.4607 8.46681 0 1.19907 
13.8044 8.43847 0 1.3754 
15.1317 8.46003 0 1.48655 
16.3785 8.4877 0 1.27914 
17.7012 8.4712 0 1.3653 
18.9717 8.45367 0 1.24183 
0.812646 9.74471 0 1.42136 
2.10276 9.80493 0 1.38619 
3.37389 9.71863 0 1.25717 
4.7244 9.71695 0 1.46224 
6.01177 9.70849 0 1.41479 
7.27999 9.77307 0 1.2789 
8.61492 9.78164 0 1.42335 
9.86916 9.77095 0 1.23439 
11.1759 9.77643 0 1.26349 
12.4645 9.74373 0 1.21289 
13.7788 9.76289 0 1.27157 
15.065 9.77483 0 1.21861 
16.338 9.78272 0 1.11274 
17.6991 9.79119 0 1.36345 
18.9555 9.72638 0 1.17975 
0.808029 11.0492 0 1.40288 
2.08069 11.0372 0 1.27938 
3.40803 11.0303 0 1.39182 
4.73136 11.0665 0 1.48586 
5.98502 11.0407 0 1.29648 
7.26828 11.0178 0 1.2348 
8.59568 11.0357 0 1.34054 
9.8814 11.0825 0 1.28801 
11.218 11.0332 0 1.43177 
12.4903 11.0744 0 1.32105 
13.7742 11.0321 0 1.25407 
15.108 11.0139 0 1.39701 
16.3744 11.0312 0 1.25498 
17.7005 11.0325 0 1.3608 
18.9933 11.0394 0 1.33014 
0.788259 12.3763 0 1.32587 
2.0752 12.341 0 1.25724 
3.32918 12.3493 0 1.06868 
4.64536 12.3316 0 1.13943 
5.98202 12.3276 0 1.2895 
7.3026 12.3348 0 1.37032 
8.59203 12.316 0 1.33635 
9.88091 12.359 0 1.27684 
11.172 12.3476 0 1.24233 
12.4974 12.3435 0 1.34597 
13.8079 12.3429 0 1.38807 
15.0521 12.3518 0 1.15764 
16.4295 12.2851 0 1.51981 
17.6793 12.2843 0 1.33341 
18.9576 12.26 0 1.31637 
0.797005 13.6632 0 1.35481 
2.09805 13.649 0 1.34683 
3.37342 13.5982 0 1.27966 
4.67065 13.6439 0 1.23694 
5.98517 13.6265 0 1.3047 
7.26132 13.596 0 1.23754 
8.59619 13.5964 0 1.37513 
9.87555 13.6207 0 1.27103 
11.1947 13.6229 0 1.34506 
12.5117 13.6209 0 1.41308 
13.7927 13.5898 0 1.37586 
15.063 13.6162 0 1.22464 
16.3337 13.5771 0 1.19256 
17.6878 13.541 0 1.46082 
18.8903 13.4683 0 1.48798 
0.791624 14.9118 0 1.35677 
2.09962 14.9539 0 1.34765 
3.40935 14.924 0 1.40314 
4.64384 14.8861 0 1.18794 
5.97633 14.9311 0 1.26507 
7.30638 14.9238 0 1.39001 
8.61373 14.8995 0 1.44356 
9.88044 14.8955 0 1.32092 
11.1812 14.9218 0 1.28869 
12.5229 14.8941 0 1.48349 
13.7968 14.8545 0 1.45788 
15.0944 14.8287 0 1.51169 
16.3703 14.8432 0 1.4008 
17.6471 14.8363 0 1.35348 
18.91 14.8425 0 1.24187 
0.794986 16.2306 0 1.35405 
2.12513 16.1843 0 1.50551 
3.38626 16.2177 0 1.31601 
4.64529 16.2294 0 1.14238 
5.98543 16.1829 0 1.35837 
7.30473 16.2602 0 1.34691 
8.54932 16.24 0 1.14165 
9.8507 16.1893 0 1.22325 
11.1715 16.1808 0 1.31523 
12.4629 16.1943 0 1.25728 
13.7989 16.1954 0 1.3768 
15.1082 16.1805 0 1.42768 
16.329 16.0807 0 1.49596 
17.6104 16.0838 0 1.46294 
18.8492 16.1273 0 1.23669 
0.829283 17.544 0 1.47388 
2.10424 17.5149 0 1.38832 
3.38541 17.5168 0 1.31197 
4.69592 17.4868 0 1.39328 
5.97934 17.5295 0 1.26986 
7.25595 17.4844 0 1.2516 
8.57918 17.4391 0 1.42986 
9.89336 17.4584 0 1.43845 
11.1396 17.4713 0 1.22931 
12.4282 17.4589 0 1.2294 
13.7762 17.4764 0 1.33162 
15.0334 17.4334 0 1.32898 
16.3103 17.4239 0 1.31323 
17.6415 17.3945 0 1.47653 
18.8724 17.3958 0 1.38018 